Generated by pymatgen.io.lammps.data.LammpsData

379  atoms

  6  atom types

0.000000 12.982700  xlo xhi
0.000000 12.982700  ylo yhi
0.000000 25.965400  zlo zhi

Masses

1    6.941000
2  138.905470
3   91.224000
4   92.906380
5   26.981539
6   15.999400

Atoms

1    1 0.0000  3.245675  4.868512  0.000000
2    1 0.0000  4.868512  0.000000  3.245675
3    1 0.0000 11.359863  6.491350  9.737025
4    1 0.0000  8.114188  6.491350  3.245675
5    1 0.0000  8.787990  7.241750  2.000634
6    1 0.0000  5.740950  8.491984 10.686060
7    1 0.0000 10.982066  2.296640 12.232300
8    1 0.0000  4.490716  4.194710  0.750400
9    1 0.0000  4.194710  7.241750  8.491984
10   1 0.0000  2.296640  5.740950  2.000634
11   1 0.0000  7.241750  8.491984  4.194710
12   1 0.0000  5.740950  2.000634  2.296640
13   1 0.0000  0.750400 10.982066  8.787990
14   1 0.0000  2.000634  2.296640  5.740950
15   1 0.0000 10.982066  8.787990  0.750400
16   1 0.0000  5.542315 11.737659  3.996075
17   1 0.0000  2.495275  7.440385  5.246309
18   1 0.0000  3.996075  5.542315 11.737659
19   1 0.0000  1.245041 10.487425  0.949035
20   1 0.0000 11.737659  3.996075  5.542315
21   1 0.0000  0.949035  5.246309  3.996075
22   1 0.0000 12.033665 11.737659  2.495275
23   1 0.0000  7.440385  1.245041  8.986625
24   1 0.0000  2.495275 12.033665 11.737659
25   1 0.0000 10.487425  5.542315  7.736391
26   1 0.0000  7.736391 10.487425  5.542315
27   1 0.0000  1.245041  8.986625  7.440385
28   1 0.0000  2.296640  0.750400  8.491984
29   1 0.0000 12.232300  2.000634  4.194710
30   1 0.0000  4.490716  8.787990  5.740950
31   1 0.0000 10.982066 10.686060  7.241750
32   1 0.0000 10.686060  0.750400  2.000634
33   1 0.0000  8.787990 12.232300  8.491984
34   1 0.0000  0.750400  2.000634 10.686060
35   1 0.0000 12.232300  8.491984  8.787990
36   1 0.0000  7.241750  4.490716  2.296640
37   1 0.0000  8.491984  8.787990 12.232300
38   1 0.0000  4.490716  2.296640  7.241750
39   1 0.0000 12.033665  5.246309 10.487425
40   1 0.0000  8.986625  0.949035 11.737659
41   1 0.0000 10.487425 12.033665  5.246309
42   1 0.0000  7.736391  3.996075  7.440385
43   1 0.0000  5.246309 10.487425 12.033665
44   1 0.0000  7.440385 11.737659 10.487425
45   1 0.0000  5.542315  5.246309  8.986625
46   1 0.0000  0.949035  7.736391  2.495275
47   1 0.0000  8.986625  5.542315  5.246309
48   1 0.0000  3.996075 12.033665  1.245041
49   1 0.0000  1.245041  3.996075 12.033665
50   1 0.0000  7.736391  2.495275  0.949035
51   1 0.0000  3.245675  1.622838 19.474050
52   1 0.0000  9.737025  8.114187 12.982700
53   1 0.0000  0.000000  9.737025 14.605537
54   1 0.0000  6.491350  3.245675 21.096887
55   1 0.0000  3.245675  4.868513 12.982700
56   1 0.0000  9.737025 11.359863 19.474050
57   1 0.0000  4.868513  0.000000 16.228375
58   1 0.0000 11.359863  6.491350 22.719725
59   1 0.0000  8.114188  6.491350 16.228375
60   1 0.0000  8.787990  7.241750 14.983334
61   1 0.0000  5.740950  8.491984 23.668760
62   1 0.0000 10.982066  2.296640 25.215000
63   1 0.0000  4.490716  4.194710 13.733100
64   1 0.0000  4.194710  7.241750 21.474684
65   1 0.0000  2.296640  5.740950 14.983334
66   1 0.0000  7.241750  8.491984 17.177410
67   1 0.0000  5.740950  2.000634 15.279340
68   1 0.0000  0.750400 10.982066 21.770690
69   1 0.0000  2.000634  2.296640 18.723650
70   1 0.0000 10.982066  8.787990 13.733100
71   1 0.0000  5.542315 11.737659 16.978775
72   1 0.0000  2.495275  7.440385 18.229009
73   1 0.0000  3.996075  5.542315 24.720359
74   1 0.0000  1.245041 10.487425 13.931735
75   1 0.0000 11.737659  3.996075 18.525015
76   1 0.0000  0.949035  5.246309 16.978775
77   1 0.0000 12.033665 11.737659 15.477975
78   1 0.0000  7.440385  1.245041 21.969325
79   1 0.0000  2.495275 12.033665 24.720359
80   1 0.0000 10.487425  5.542315 20.719091
81   1 0.0000  7.736391 10.487425 18.525015
82   1 0.0000  1.245041  8.986625 20.423085
83   1 0.0000  2.296640  0.750400 21.474684
84   1 0.0000 12.232300  2.000634 17.177410
85   1 0.0000  4.490716  8.787990 18.723650
86   1 0.0000 10.982066 10.686060 20.224450
87   1 0.0000 10.686060  0.750400 14.983334
88   1 0.0000  8.787990 12.232300 21.474684
89   1 0.0000  0.750400  2.000634 23.668760
90   1 0.0000 12.232300  8.491984 21.770690
91   1 0.0000  7.241750  4.490716 15.279340
92   1 0.0000  8.491984  8.787990 25.215000
93   1 0.0000  4.490716  2.296640 20.224450
94   1 0.0000 12.033665  5.246309 23.470125
95   1 0.0000  8.986625  0.949035 24.720359
96   1 0.0000 10.487425 12.033665 18.229009
97   1 0.0000  7.736391  3.996075 20.423085
98   1 0.0000  5.246309 10.487425 25.016365
99   1 0.0000  7.440385 11.737659 23.470125
100  1 0.0000  5.542315  5.246309 21.969325
101  1 0.0000  0.949035  7.736391 15.477975
102  1 0.0000  8.986625  5.542315 18.229009
103  1 0.0000  3.996075 12.033665 14.227741
104  1 0.0000  1.245041  3.996075 25.016365
105  1 0.0000  7.736391  2.495275 13.931735
106  2 0.0000  6.491350  3.245675 11.359863
107  2 0.0000  0.000000  9.737025  4.868512
108  2 0.0000  6.491350  9.737025  8.114187
109  2 0.0000  0.000000  3.245675  1.622837
110  2 0.0000  3.245675 11.359863  6.491350
111  2 0.0000  9.737025  4.868512  0.000000
112  2 0.0000  9.737025  8.114187  6.491350
113  2 0.0000  3.245675  1.622837  0.000000
114  2 0.0000 11.359863  6.491350  3.245675
115  2 0.0000  4.868513  0.000000  9.737025
116  2 0.0000  8.114188  6.491350  9.737025
117  2 0.0000  1.622838  0.000000  3.245675
118  2 0.0000  0.000000  3.245675  8.114187
119  2 0.0000  6.491350  9.737025  1.622837
120  2 0.0000  0.000000  9.737025 11.359863
121  2 0.0000  6.491350  3.245675  4.868512
122  2 0.0000  3.245675  8.114187 -0.000000
123  2 0.0000  9.737025  1.622838  6.491350
124  2 0.0000  9.737025 11.359863 -0.000000
125  2 0.0000  3.245675  4.868512  6.491350
126  2 0.0000  8.114187  0.000000  3.245675
127  2 0.0000  1.622838  6.491350  9.737025
128  2 0.0000 11.359863  0.000000  9.737025
129  2 0.0000  4.868513  6.491350  3.245675
130  2 0.0000  6.491350  3.245675 24.342562
131  2 0.0000  0.000000  9.737025 17.851212
132  2 0.0000  6.491350  9.737025 21.096887
133  2 0.0000  0.000000  3.245675 14.605537
134  2 0.0000  3.245675 11.359863 19.474050
135  2 0.0000  9.737025  4.868513 12.982700
136  2 0.0000  9.737025  8.114188 19.474050
137  2 0.0000  3.245675  1.622838 12.982700
138  2 0.0000 11.359863  6.491350 16.228375
139  2 0.0000  4.868513  0.000000 22.719725
140  2 0.0000  8.114188  6.491350 22.719725
141  2 0.0000  1.622838  0.000000 16.228375
142  2 0.0000  0.000000  3.245675 21.096887
143  2 0.0000  6.491350  9.737025 14.605537
144  2 0.0000  0.000000  9.737025 24.342562
145  2 0.0000  6.491350  3.245675 17.851212
146  2 0.0000  3.245675  8.114187 12.982700
147  2 0.0000  9.737025  1.622838 19.474050
148  2 0.0000  9.737025 11.359863 12.982700
149  2 0.0000  3.245675  4.868513 19.474050
150  2 0.0000  8.114188  0.000000 16.228375
151  2 0.0000  1.622838  6.491350 22.719725
152  2 0.0000 11.359863  0.000000 22.719725
153  2 0.0000  4.868513  6.491350 16.228375
154  3 0.0000  9.737025  3.245675  9.737025
155  3 0.0000  9.737025  9.737025  3.245675
156  3 0.0000  3.245675  9.737025  9.737025
157  3 0.0000  3.245675  3.245675  3.245675
158  3 0.0000  6.491350  6.491350  0.000000
159  3 0.0000  6.491350  0.000000  6.491350
160  3 0.0000  0.000000  6.491350  6.491350
161  3 0.0000  0.000000  0.000000  0.000000
162  3 0.0000  3.245675  9.737025  3.245675
163  3 0.0000  3.245675  3.245675  9.737025
164  3 0.0000  9.737025  3.245675  3.245675
165  3 0.0000  9.737025  9.737025  9.737025
166  3 0.0000  0.000000  0.000000  6.491350
167  3 0.0000  0.000000  6.491350 -0.000000
168  3 0.0000  6.491350  0.000000  0.000000
169  3 0.0000  6.491350  6.491350  6.491350
170  3 0.0000  9.737025  3.245675 22.719725
171  3 0.0000  9.737025  9.737025 16.228375
172  3 0.0000  3.245675  9.737025 22.719725
173  3 0.0000  3.245675  3.245675 16.228375
174  3 0.0000  6.491350  6.491350 12.982700
175  3 0.0000  6.491350  0.000000 19.474050
176  3 0.0000  0.000000  6.491350 19.474050
177  3 0.0000  0.000000  0.000000 12.982700
178  3 0.0000  3.245675  9.737025 16.228375
179  3 0.0000  3.245675  3.245675 22.719725
180  3 0.0000  9.737025  9.737025 22.719725
181  3 0.0000  0.000000  0.000000 19.474050
182  3 0.0000  0.000000  6.491350 12.982700
183  3 0.0000  6.491350  0.000000 12.982700
184  3 0.0000  6.491350  6.491350 19.474050
185  4 0.0000  9.737025  3.245675 16.228375
186  5 0.0000  3.245675  1.622838  6.491350
187  5 0.0000  0.000000  9.737025  1.622837
188  6 0.0000  7.788322  3.944144  9.326382
189  6 0.0000 11.685728  9.038556  2.835032
190  6 0.0000  5.194378 10.435494 10.147668
191  6 0.0000  1.296972  2.547206  3.656318
192  6 0.0000  3.944144  9.326382  7.788322
193  6 0.0000  9.038556  2.835032 11.685728
194  6 0.0000 10.435494 10.147668  5.194378
195  6 0.0000  2.547206  3.656318  1.296972
196  6 0.0000  9.326382  7.788322  3.944144
197  6 0.0000  2.835032 11.685728  9.038556
198  6 0.0000 10.147668  5.194378 10.435494
199  6 0.0000  3.656318  1.296972  2.547206
200  6 0.0000 11.685728  2.547206 10.147668
201  6 0.0000  7.788322 10.435494  3.656318
202  6 0.0000  1.296972  9.038556  9.326382
203  6 0.0000  5.194378  3.944144  2.835032
204  6 0.0000  2.547206 10.147668 11.685728
205  6 0.0000 10.435494  3.656318  7.788322
206  6 0.0000  9.038556  9.326382  1.296972
207  6 0.0000  3.944144  2.835032  5.194378
208  6 0.0000 10.147668 11.685728  2.547206
209  6 0.0000  3.656318  7.788322 10.435494
210  6 0.0000  9.326382  1.296972  9.038556
211  6 0.0000  2.835032  5.194378  3.944144
212  6 0.0000  4.542647  6.080707  0.698469
213  6 0.0000  8.440053 12.572057  5.792881
214  6 0.0000  1.948703  6.901993  7.189819
215  6 0.0000 11.033997  0.410643 12.284231
216  6 0.0000  0.698469  4.542647  6.080707
217  6 0.0000  5.792881  8.440053 12.572057
218  6 0.0000  7.189819  1.948703  6.901993
219  6 0.0000 12.284231 11.033997  0.410643
220  6 0.0000  6.080707  0.698469  4.542647
221  6 0.0000 12.572057  5.792881  8.440053
222  6 0.0000  6.901993  7.189819  1.948703
223  6 0.0000  0.410643 12.284231 11.033997
224  6 0.0000  8.440053  6.901993 12.284231
225  6 0.0000  4.542647  0.410643  7.189819
226  6 0.0000 11.033997  6.080707  5.792881
227  6 0.0000  1.948703 12.572057  0.698469
228  6 0.0000 12.284231  8.440053  6.901993
229  6 0.0000  7.189819  4.542647  0.410643
230  6 0.0000  5.792881 11.033997  6.080707
231  6 0.0000  0.698469  1.948703 12.572057
232  6 0.0000  6.901993 12.284231  8.440053
233  6 0.0000  0.410643  7.189819  4.542647
234  6 0.0000  6.080707  5.792881 11.033997
235  6 0.0000 12.572057  0.698469  1.948703
236  6 0.0000  1.296972 10.435494  2.835032
237  6 0.0000  5.194378  2.547206  9.326382
238  6 0.0000 11.685728  3.944144  3.656318
239  6 0.0000  7.788322  9.038556 10.147668
240  6 0.0000 10.435494  2.835032  1.296972
241  6 0.0000  2.547206  9.326382  5.194378
242  6 0.0000  3.944144  3.656318 11.685728
243  6 0.0000  9.038556 10.147668  7.788322
244  6 0.0000  2.835032  1.296972 10.435494
245  6 0.0000  9.326382  5.194378  2.547206
246  6 0.0000  3.656318 11.685728  3.944144
247  6 0.0000 10.147668  7.788322  9.038556
248  6 0.0000  5.194378  9.038556  3.656318
249  6 0.0000  1.296972  3.944144 10.147668
250  6 0.0000  7.788322  2.547206  2.835032
251  6 0.0000 11.685728 10.435494  9.326382
252  6 0.0000  9.038556  3.656318  5.194378
253  6 0.0000  3.944144 10.147668  1.296972
254  6 0.0000  2.547206  2.835032  7.788322
255  6 0.0000 10.435494  9.326382 11.685728
256  6 0.0000  3.656318  5.194378  9.038556
257  6 0.0000 10.147668  1.296972  3.944144
258  6 0.0000  2.835032  7.788322  2.547206
259  6 0.0000  9.326382 11.685728 10.435494
260  6 0.0000 11.033997 12.572057  7.189819
261  6 0.0000  1.948703  6.080707 12.284231
262  6 0.0000  8.440053  0.410643  0.698469
263  6 0.0000  4.542647  6.901993  5.792881
264  6 0.0000  7.189819 11.033997 12.572057
265  6 0.0000 12.284231  1.948703  6.080707
266  6 0.0000  0.698469  8.440053  0.410643
267  6 0.0000  5.792881  4.542647  6.901993
268  6 0.0000 12.572057  7.189819 11.033997
269  6 0.0000  6.080707 12.284231  1.948703
270  6 0.0000  0.410643  0.698469  8.440053
271  6 0.0000  6.901993  5.792881  4.542647
272  6 0.0000  1.948703  0.410643  5.792881
273  6 0.0000 11.033997  6.901993  0.698469
274  6 0.0000  4.542647 12.572057 12.284231
275  6 0.0000  8.440053  6.080707  7.189819
276  6 0.0000  5.792881  1.948703  0.410643
277  6 0.0000  0.698469 11.033997  6.901993
278  6 0.0000 12.284231  4.542647 12.572057
279  6 0.0000  7.189819  8.440053  6.080707
280  6 0.0000  0.410643  5.792881  1.948703
281  6 0.0000  6.901993  0.698469 11.033997
282  6 0.0000 12.572057 12.284231  4.542647
283  6 0.0000  6.080707  7.189819  8.440053
284  6 0.0000  7.788322  3.944144 22.309082
285  6 0.0000 11.685728  9.038556 15.817732
286  6 0.0000  5.194378 10.435494 23.130368
287  6 0.0000  1.296972  2.547206 16.639018
288  6 0.0000  3.944144  9.326382 20.771022
289  6 0.0000  9.038556  2.835032 24.668428
290  6 0.0000 10.435494 10.147668 18.177078
291  6 0.0000  2.547206  3.656318 14.279672
292  6 0.0000  9.326382  7.788322 16.926844
293  6 0.0000  2.835032 11.685728 22.021256
294  6 0.0000 10.147668  5.194378 23.418194
295  6 0.0000  3.656318  1.296972 15.529906
296  6 0.0000 11.685728  2.547206 23.130368
297  6 0.0000  7.788322 10.435494 16.639018
298  6 0.0000  1.296972  9.038556 22.309082
299  6 0.0000  5.194378  3.944144 15.817732
300  6 0.0000  2.547206 10.147668 24.668428
301  6 0.0000 10.435494  3.656318 20.771022
302  6 0.0000  9.038556  9.326382 14.279672
303  6 0.0000  3.944144  2.835032 18.177078
304  6 0.0000 10.147668 11.685728 15.529906
305  6 0.0000  3.656318  7.788322 23.418194
306  6 0.0000  9.326382  1.296972 22.021256
307  6 0.0000  2.835032  5.194378 16.926844
308  6 0.0000  4.542647  6.080707 13.681169
309  6 0.0000  8.440053 12.572057 18.775581
310  6 0.0000  1.948703  6.901993 20.172519
311  6 0.0000 11.033997  0.410643 25.266931
312  6 0.0000  0.698469  4.542647 19.063407
313  6 0.0000  5.792881  8.440053 25.554757
314  6 0.0000  7.189819  1.948703 19.884693
315  6 0.0000 12.284231 11.033997 13.393343
316  6 0.0000  6.080707  0.698469 17.525347
317  6 0.0000 12.572057  5.792881 21.422753
318  6 0.0000  6.901993  7.189819 14.931403
319  6 0.0000  0.410643 12.284231 24.016697
320  6 0.0000  8.440053  6.901993 25.266931
321  6 0.0000  4.542647  0.410643 20.172519
322  6 0.0000 11.033997  6.080707 18.775581
323  6 0.0000  1.948703 12.572057 13.681169
324  6 0.0000 12.284231  8.440053 19.884693
325  6 0.0000  7.189819  4.542647 13.393343
326  6 0.0000  5.792881 11.033997 19.063407
327  6 0.0000  0.698469  1.948703 25.554757
328  6 0.0000  6.901993 12.284231 21.422753
329  6 0.0000  0.410643  7.189819 17.525347
330  6 0.0000  6.080707  5.792881 24.016697
331  6 0.0000 12.572057  0.698469 14.931403
332  6 0.0000  1.296972 10.435494 15.817732
333  6 0.0000  5.194378  2.547206 22.309082
334  6 0.0000 11.685728  3.944144 16.639018
335  6 0.0000  7.788322  9.038556 23.130368
336  6 0.0000 10.435494  2.835032 14.279672
337  6 0.0000  2.547206  9.326382 18.177078
338  6 0.0000  3.944144  3.656318 24.668428
339  6 0.0000  9.038556 10.147668 20.771022
340  6 0.0000  2.835032  1.296972 23.418194
341  6 0.0000  9.326382  5.194378 15.529906
342  6 0.0000  3.656318 11.685728 16.926844
343  6 0.0000 10.147668  7.788322 22.021256
344  6 0.0000  5.194378  9.038556 16.639018
345  6 0.0000  1.296972  3.944144 23.130368
346  6 0.0000  7.788322  2.547206 15.817732
347  6 0.0000 11.685728 10.435494 22.309082
348  6 0.0000  9.038556  3.656318 18.177078
349  6 0.0000  3.944144 10.147668 14.279672
350  6 0.0000  2.547206  2.835032 20.771022
351  6 0.0000 10.435494  9.326382 24.668428
352  6 0.0000  3.656318  5.194378 22.021256
353  6 0.0000 10.147668  1.296972 16.926844
354  6 0.0000  2.835032  7.788322 15.529906
355  6 0.0000  9.326382 11.685728 23.418194
356  6 0.0000 11.033997 12.572057 20.172519
357  6 0.0000  1.948703  6.080707 25.266931
358  6 0.0000  8.440053  0.410643 13.681169
359  6 0.0000  4.542647  6.901993 18.775581
360  6 0.0000  7.189819 11.033997 25.554757
361  6 0.0000 12.284231  1.948703 19.063407
362  6 0.0000  0.698469  8.440053 13.393343
363  6 0.0000  5.792881  4.542647 19.884693
364  6 0.0000 12.572057  7.189819 24.016697
365  6 0.0000  6.080707 12.284231 14.931403
366  6 0.0000  0.410643  0.698469 21.422753
367  6 0.0000  6.901993  5.792881 17.525347
368  6 0.0000  1.948703  0.410643 18.775581
369  6 0.0000 11.033997  6.901993 13.681169
370  6 0.0000  4.542647 12.572057 25.266931
371  6 0.0000  8.440053  6.080707 20.172519
372  6 0.0000  5.792881  1.948703 13.393343
373  6 0.0000  0.698469 11.033997 19.884693
374  6 0.0000 12.284231  4.542647 25.554757
375  6 0.0000  7.189819  8.440053 19.063407
376  6 0.0000  0.410643  5.792881 14.931403
377  6 0.0000  6.901993  0.698469 24.016697
378  6 0.0000 12.572057 12.284231 17.525347
379  6 0.0000  6.080707  7.189819 21.422753

